 *******************************************************************************
 ** Site#:  175            For non-commercial use only        Version 12.201W **
 *******************************************************************************
 ** Cite this work as: MOPAC2012, James J. P. Stewart, Stewart Computational  **
 ** Chemistry, Version 12.201W web: HTTP://OpenMOPAC.net  Days remaining: 333 **
 *******************************************************************************
 **                                                                           **
 **                                MOPAC2012                                  **
 **                                                                           **
 *******************************************************************************

                            RM1 CALCULATION RESULTS


 *******************************************************************************
 *  CALCULATION DONE:                                Mon Aug 20 17:49:35 2012  *
 *  RM1      - The RM1 Hamiltonian to be used
 *  PRECISE  - CRITERIA TO BE INCREASED BY 100 TIMES
 *  XYZ      - CARTESIAN COORDINATE SYSTEM TO BE USED
 *  T=       - A TIME OF 172800.0 SECONDS REQUESTED
 *  DUMP=N   - RESTART FILE WRITTEN EVERY  7200.000 SECONDS
 *  GNORM=   - EXIT WHEN GRADIENT NORM DROPS BELOW .100E-01
 *******************************************************************************
RM1 GNORM=0.01 PRECISE XYZ
 NAME: AM1-T-BUTIL-AXIAL

   ATOM   CHEMICAL          X               Y               Z
  NUMBER   SYMBOL      (ANGSTROMS)     (ANGSTROMS)     (ANGSTROMS)
 
     1       C          0.00000000  *   0.00000000  *   0.00000000  *
     2       C          1.51800000  *   0.00000000  *   0.00000000  *
     3       C          2.06825922  *   1.41583043  *   0.00000000  *
     4       C          1.52306441  *   2.31197147  *   1.11642799  *
     5       C         -0.00054235  *   2.19016300  *   1.21891086  *
     6       C         -0.52336692  *   0.76406933  *   1.20275065  *
     7       H         -0.38317259  *  -1.03810351  *   0.00913368  *
     8       H         -0.38053158  *   0.45585143  *  -0.93544598  *
     9       H          1.90132359  *  -0.55037678  *  -0.88055439  *
    10       H          1.89789812  *  -0.54874832  *   0.89106093  *
    11       H          1.83592584  *   1.89061463  *  -0.97435795  *
    12       H          3.17873712  *   1.38188660  *   0.06675050  *
    13       C          2.26928656  *   2.16920266  *   2.47364527  *
    14       H          1.73023964  *   3.36709991  *   0.79776727  *
    15       H         -0.45346837  *   2.74751815  *   0.37452616  *
    16       H         -0.34760422  *   2.70176606  *   2.14442659  *
    17       H         -0.22454452  *   0.24566453  *   2.14157892  *
    18       H         -1.63023929  *   0.77146344  *   1.20020250  *
    19       C          3.75923740  *   2.45058849  *   2.25691176  *
    20       C          1.72551186  *   3.21181392  *   3.45516232  *
    21       C          2.11953197  *   0.78585964  *   3.09828171  *
    22       H          4.33553771  *   2.29252619  *   3.17757457  *
    23       H          4.17602592  *   1.78874613  *   1.48003481  *
    24       H          3.93257731  *   3.48535806  *   1.93181520  *
    25       H          2.17671854  *   3.10056437  *   4.44952736  *
    26       H          1.92902209  *   4.23529248  *   3.11229534  *
    27       H          0.63314130  *   3.11485313  *   3.56746072  *
    28       H          2.65606896  *   0.71605230  *   4.05325855  *
    29       H          1.06092533  *   0.54491238  *   3.28839016  *
    30       H          2.51384957  *   0.00108191  *   2.43233698  *
 


          CARTESIAN COORDINATES 

    NO.       ATOM         X         Y         Z

     1         C        0.0000    0.0000    0.0000
     2         C        1.5180    0.0000    0.0000
     3         C        2.0683    1.4158    0.0000
     4         C        1.5231    2.3120    1.1164
     5         C       -0.0005    2.1902    1.2189
     6         C       -0.5234    0.7641    1.2028
     7         H       -0.3832   -1.0381    0.0091
     8         H       -0.3805    0.4559   -0.9354
     9         H        1.9013   -0.5504   -0.8806
    10         H        1.8979   -0.5487    0.8911
    11         H        1.8359    1.8906   -0.9744
    12         H        3.1787    1.3819    0.0668
    13         C        2.2693    2.1692    2.4736
    14         H        1.7302    3.3671    0.7978
    15         H       -0.4535    2.7475    0.3745
    16         H       -0.3476    2.7018    2.1444
    17         H       -0.2245    0.2457    2.1416
    18         H       -1.6302    0.7715    1.2002
    19         C        3.7592    2.4506    2.2569
    20         C        1.7255    3.2118    3.4552
    21         C        2.1195    0.7859    3.0983
    22         H        4.3355    2.2925    3.1776
    23         H        4.1760    1.7887    1.4800
    24         H        3.9326    3.4854    1.9318
    25         H        2.1767    3.1006    4.4495
    26         H        1.9290    4.2353    3.1123
    27         H        0.6331    3.1149    3.5675
    28         H        2.6561    0.7161    4.0533
    29         H        1.0609    0.5449    3.2884
    30         H        2.5138    0.0011    2.4323

  H: (RM1): G.B. ROCHA, R.O. FREIRE, A.M.SIMAS, J.J.P. STEWART, J. COMP. CHEM. 27, 1101 (2006)
  C: (RM1): G.B. ROCHA, R.O. FREIRE, A.M.SIMAS, J.J.P. STEWART, J. COMP. CHEM. 27, 1101 (2006)

           Empirical Formula: C10 H20  =    30 atoms



      MOLECULAR POINT GROUP   :   Cs  


      RHF CALCULATION, NO. OF DOUBLY OCCUPIED LEVELS =   30

      Geometry optimization using EF

          DIAGONAL MATRIX USED AS START HESSIAN

 CYCLE:     1 TIME:   0.343 TIME LEFT:  2.00D  GRAD.:    22.150 HEAT:-47.74005
 CYCLE:     2 TIME:   0.780 TIME LEFT:  2.00D  GRAD.:    16.757 HEAT:-47.97563
 CYCLE:     3 TIME:   0.312 TIME LEFT:  2.00D  GRAD.:    10.803 HEAT:-48.18006
 CYCLE:     4 TIME:   0.452 TIME LEFT:  2.00D  GRAD.:    10.703 HEAT:-48.24351
 CYCLE:     5 TIME:   0.218 TIME LEFT:  2.00D  GRAD.:     7.479 HEAT:-48.29910
 CYCLE:     6 TIME:   0.530 TIME LEFT:  2.00D  GRAD.:     8.586 HEAT:-48.31426
 CYCLE:     7 TIME:   0.250 TIME LEFT:  2.00D  GRAD.:     8.309 HEAT:-48.32311
 CYCLE:     8 TIME:   0.218 TIME LEFT:  2.00D  GRAD.:     9.368 HEAT:-48.32962
 CYCLE:     9 TIME:   0.218 TIME LEFT:  2.00D  GRAD.:     9.094 HEAT:-48.33541
 CYCLE:    10 TIME:   0.234 TIME LEFT:  2.00D  GRAD.:     8.129 HEAT:-48.34694
 CYCLE:    11 TIME:   0.546 TIME LEFT:  2.00D  GRAD.:     3.579 HEAT:-48.37289
 CYCLE:    12 TIME:   0.546 TIME LEFT:  2.00D  GRAD.:     2.468 HEAT:-48.37816
 CYCLE:    13 TIME:   0.265 TIME LEFT:  2.00D  GRAD.:     2.099 HEAT:-48.38309
 CYCLE:    14 TIME:   0.577 TIME LEFT:  2.00D  GRAD.:     3.323 HEAT:-48.38588
 CYCLE:    15 TIME:   0.296 TIME LEFT:  2.00D  GRAD.:     3.381 HEAT:-48.39542
 CYCLE:    16 TIME:   0.562 TIME LEFT:  2.00D  GRAD.:     5.175 HEAT:-48.39777
 CYCLE:    17 TIME:   0.530 TIME LEFT:  2.00D  GRAD.:     4.897 HEAT:-48.39822
 CYCLE:    18 TIME:   0.312 TIME LEFT:  2.00D  GRAD.:     3.791 HEAT:-48.40291
 CYCLE:    19 TIME:   0.577 TIME LEFT:  2.00D  GRAD.:     1.899 HEAT:-48.40838
 CYCLE:    20 TIME:   0.562 TIME LEFT:  2.00D  GRAD.:     5.300 HEAT:-48.40031
 CYCLE:    21 TIME:   0.296 TIME LEFT:  2.00D  GRAD.:     1.858 HEAT:-48.41178
 CYCLE:    22 TIME:   0.452 TIME LEFT:  2.00D  GRAD.:     5.720 HEAT:-48.40335
 CYCLE:    23 TIME:   0.218 TIME LEFT:  2.00D  GRAD.:     1.551 HEAT:-48.41447
 CYCLE:    24 TIME:   0.562 TIME LEFT:  2.00D  GRAD.:     4.203 HEAT:-48.41037
 CYCLE:    25 TIME:   0.218 TIME LEFT:  2.00D  GRAD.:     2.297 HEAT:-48.41603
 CYCLE:    26 TIME:   0.406 TIME LEFT:  2.00D  GRAD.:     4.738 HEAT:-48.41034
 CYCLE:    27 TIME:   0.234 TIME LEFT:  2.00D  GRAD.:     1.091 HEAT:-48.41977
 CYCLE:    28 TIME:   0.265 TIME LEFT:  2.00D  GRAD.:     5.440 HEAT:-48.41322
 CYCLE:    29 TIME:   0.265 TIME LEFT:  2.00D  GRAD.:     1.820 HEAT:-48.42215
 CYCLE:    30 TIME:   0.328 TIME LEFT:  2.00D  GRAD.:     5.406 HEAT:-48.41566
 CYCLE:    31 TIME:   0.312 TIME LEFT:  2.00D  GRAD.:     4.202 HEAT:-48.41904
 CYCLE:    32 TIME:   0.562 TIME LEFT:  2.00D  GRAD.:     2.895 HEAT:-48.42304
 CYCLE:    33 TIME:   0.250 TIME LEFT:  2.00D  GRAD.:     4.528 HEAT:-48.41973
 CYCLE:    34 TIME:   0.328 TIME LEFT:  2.00D  GRAD.:     3.949 HEAT:-48.42269
 CYCLE:    35 TIME:   0.593 TIME LEFT:  2.00D  GRAD.:     3.790 HEAT:-48.42328
 CYCLE:    36 TIME:   0.281 TIME LEFT:  2.00D  GRAD.:     4.281 HEAT:-48.42132
 CYCLE:    37 TIME:   0.281 TIME LEFT:  2.00D  GRAD.:     3.404 HEAT:-48.42539
 CYCLE:    38 TIME:   0.577 TIME LEFT:  2.00D  GRAD.:     4.330 HEAT:-48.42239
 CYCLE:    39 TIME:   0.296 TIME LEFT:  2.00D  GRAD.:     2.275 HEAT:-48.42769
 CYCLE:    40 TIME:   0.577 TIME LEFT:  2.00D  GRAD.:     3.724 HEAT:-48.42504
 CYCLE:    41 TIME:   0.343 TIME LEFT:  2.00D  GRAD.:     1.956 HEAT:-48.42813
 CYCLE:    42 TIME:   0.343 TIME LEFT:  2.00D  GRAD.:     4.554 HEAT:-48.42096
 CYCLE:    43 TIME:   0.281 TIME LEFT:  2.00D  GRAD.:     1.977 HEAT:-48.42881
 CYCLE:    44 TIME:   0.577 TIME LEFT:  2.00D  GRAD.:     4.702 HEAT:-48.42273
 CYCLE:    45 TIME:   0.374 TIME LEFT:  2.00D  GRAD.:     0.428 HEAT:-48.43000
 CYCLE:    46 TIME:   0.343 TIME LEFT:  2.00D  GRAD.:     1.220 HEAT:-48.42940
 CYCLE:    47 TIME:   0.281 TIME LEFT:  2.00D  GRAD.:     0.796 HEAT:-48.42998
 CYCLE:    48 TIME:   0.312 TIME LEFT:  2.00D  GRAD.:     3.151 HEAT:-48.42625
 CYCLE:    49 TIME:   0.343 TIME LEFT:  2.00D  GRAD.:     0.220 HEAT:-48.43022
 CYCLE:    50 TIME:   0.312 TIME LEFT:  2.00D  GRAD.:     1.259 HEAT:-48.42978
 CYCLE:    51 TIME:   0.312 TIME LEFT:  2.00D  GRAD.:     0.175 HEAT:-48.43027
 CYCLE:    52 TIME:   0.328 TIME LEFT:  2.00D  GRAD.:     0.348 HEAT:-48.43026
 CYCLE:    53 TIME:   0.312 TIME LEFT:  2.00D  GRAD.:     0.624 HEAT:-48.43023
 CYCLE:    54 TIME:   0.328 TIME LEFT:  2.00D  GRAD.:     0.335 HEAT:-48.43031
 CYCLE:    55 TIME:   0.296 TIME LEFT:  2.00D  GRAD.:     0.241 HEAT:-48.43039
 CYCLE:    56 TIME:   0.296 TIME LEFT:  2.00D  GRAD.:     1.089 HEAT:-48.43001
 CYCLE:    57 TIME:   0.343 TIME LEFT:  2.00D  GRAD.:     0.054 HEAT:-48.43044
 CYCLE:    58 TIME:   0.296 TIME LEFT:  2.00D  GRAD.:     0.171 HEAT:-48.43045
 CYCLE:    59 TIME:   0.328 TIME LEFT:  2.00D  GRAD.:     0.196 HEAT:-48.43047
 CYCLE:    60 TIME:   0.328 TIME LEFT:  2.00D  GRAD.:     0.186 HEAT:-48.43047
 CYCLE:    61 TIME:   0.312 TIME LEFT:  2.00D  GRAD.:     0.458 HEAT:-48.43041
 CYCLE:    62 TIME:   0.343 TIME LEFT:  2.00D  GRAD.:     0.036 HEAT:-48.43049
 CYCLE:    63 TIME:   0.281 TIME LEFT:  2.00D  GRAD.:     0.026 HEAT:-48.43049
 CYCLE:    64 TIME:   0.281 TIME LEFT:  2.00D  GRAD.:     0.036 HEAT:-48.43050
 CYCLE:    65 TIME:   0.281 TIME LEFT:  2.00D  GRAD.:     0.035 HEAT:-48.43051
 CYCLE:    66 TIME:   0.296 TIME LEFT:  2.00D  GRAD.:     0.024 HEAT:-48.43052
 CYCLE:    67 TIME:   0.312 TIME LEFT:  2.00D  GRAD.:     0.035 HEAT:-48.43052
 CYCLE:    68 TIME:   0.296 TIME LEFT:  2.00D  GRAD.:     0.016 HEAT:-48.43052
 CYCLE:    69 TIME:   0.265 TIME LEFT:  2.00D  GRAD.:     0.016 HEAT:-48.43052
 CYCLE:    70 TIME:   0.312 TIME LEFT:  2.00D  GRAD.:     0.013 HEAT:-48.43052
 CYCLE:    71 TIME:   0.312 TIME LEFT:  2.00D  GRAD.:     0.005 HEAT:-48.43052

     RMS GRADIENT =  0.00456  IS LESS THAN CUTOFF =  0.01000



 -------------------------------------------------------------------------------
RM1 GNORM=0.01 PRECISE XYZ
 NAME: AM1-T-BUTIL-AXIAL



     GEOMETRY OPTIMISED USING EIGENVECTOR FOLLOWING (EF).     
     SCF FIELD WAS ACHIEVED                                   


                              RM1 CALCULATION
                                                       MOPAC2012 (Version: 12.201W)
                                                       Mon Aug 20 17:50:05 2012
                                                       No. of days left = 333




          FINAL HEAT OF FORMATION =        -48.43052 KCAL/MOL =    -202.63332 KJ/MOL


          TOTAL ENERGY            =      -1539.27928 EV
          ELECTRONIC ENERGY       =      -9907.11515 EV  POINT GROUP:     Cs  
          CORE-CORE REPULSION     =       8367.83587 EV
          COSMO AREA              =        186.80 SQUARE ANGSTROMS
          COSMO VOLUME            =        207.90 CUBIC ANGSTROMS

          GRADIENT NORM           =          0.00456
          IONIZATION POTENTIAL    =         10.463873 EV
          HOMO LUMO ENERGIES (EV) =        -10.464  3.832
          NO. OF FILLED LEVELS    =         30
          MOLECULAR WEIGHT        =        140.268

          MOLECULAR DIMENSIONS (Angstroms)

            Atom       Atom       Distance
            H     7    H    24     6.52556
            H     9    H    27     5.12595
            H    15    H    28     4.92874


          SCF CALCULATIONS        =         92
          COMPUTATION TIME        =         26.005 SECONDS




   ATOM   CHEMICAL          X               Y               Z
  NUMBER   SYMBOL      (ANGSTROMS)     (ANGSTROMS)     (ANGSTROMS)
 
     1       C          0.00368612  *   0.01069547  *  -0.00049791  *
     2       C          1.52414074  *   0.00012340  *   0.01631544  *
     3       C          2.06969670  *   1.42078284  *   0.00414130  *
     4       C          1.52577426  *   2.32178520  *   1.11475843  *
     5       C          0.00476371  *   2.19365123  *   1.22076336  *
     6       C         -0.51255181  *   0.76242203  *   1.21629335  *
     7       H         -0.39489741  *  -1.02560491  *  -0.01868321  *
     8       H         -0.37598182  *   0.47083514  *  -0.93720526  *
     9       H          1.91780953  *  -0.56605115  *  -0.85514577  *
    10       H          1.90384002  *  -0.56110743  *   0.89952825  *
    11       H          1.83795951  *   1.88626947  *  -0.97970084  *
    12       H          3.18239314  *   1.39408487  *   0.03823745  *
    13       C          2.26309514  *   2.16843107  *   2.46361079  *
    14       H          1.72978650  *   3.38131697  *   0.78794626  *
    15       H         -0.46056459  *   2.74656867  *   0.37455097  *
    16       H         -0.36530388  *   2.72192367  *   2.12847878  *
    17       H         -0.22616631  *   0.23611539  *   2.15448274  *
    18       H         -1.62373897  *   0.75948836  *   1.23146280  *
    19       C          3.75563539  *   2.44413941  *   2.25550243  *
    20       C          1.72237460  *   3.20516557  *   3.45346075  *
    21       C          2.10643979  *   0.78344528  *   3.07756372  *
    22       H          4.33020056  *   2.34327679  *   3.18729053  *
    23       H          4.20644488  *   1.75032633  *   1.52791660  *
    24       H          3.94827434  *   3.45940256  *   1.87986057  *
    25       H          2.21178329  *   3.13617777  *   4.43542274  *
    26       H          1.86934394  *   4.23752028  *   3.10472637  *
    27       H          0.64123782  *   3.08473990  *   3.62847207  *
    28       H          2.63705096  *   0.69111021  *   4.03681290  *
    29       H          1.05277017  *   0.53082211  *   3.27894027  *
    30       H          2.50213025  *  -0.01165692  *   2.42500525  *

           Empirical Formula: C10 H20  =    30 atoms



      MOLECULAR POINT GROUP   :   Cs  


                  EIGENVALUES  
 -38.07192 -34.09198 -30.15391 -29.16964 -26.83463 -26.70194 -22.67980 -22.06780
 -19.95257 -18.10347 -16.22716 -15.51404 -15.23464 -14.54727 -14.06262 -13.82662
 -13.25623 -13.23919 -12.97315 -12.86590 -12.57432 -12.25410 -12.17224 -11.70792
 -11.66197 -11.28034 -11.18892 -10.75424 -10.56395 -10.46387   3.83212   3.95221
   4.07091   4.12974   4.28174   4.30340   4.50168   4.67200   4.72204   4.79676
   4.80536   4.88110   4.90570   4.91081   5.03186   5.08833   5.18706   5.29610
   5.32958   5.37983   5.39928   5.43336   5.49368   5.50498   5.61098   5.62747
   5.70803   5.76279   5.91727   5.96491


              NET ATOMIC CHARGES AND DIPOLE CONTRIBUTIONS

  ATOM NO.   TYPE          CHARGE      No. of ELECS.   s-Pop       p-Pop       
    1          C          -0.113254        4.1133     1.16660     2.94665
    2          C          -0.120081        4.1201     1.16862     2.95146
    3          C          -0.119892        4.1199     1.17061     2.94928
    4          C          -0.056763        4.0568     1.18277     2.87399
    5          C          -0.119892        4.1199     1.17061     2.94928
    6          C          -0.120081        4.1201     1.16862     2.95146
    7          H           0.053510        0.9465     0.94649
    8          H           0.060396        0.9396     0.93960
    9          H           0.052956        0.9470     0.94704
   10          H           0.067481        0.9325     0.93252
   11          H           0.055775        0.9442     0.94423
   12          H           0.062360        0.9376     0.93764
   13          C           0.027041        3.9730     1.17869     2.79427
   14          H           0.057624        0.9424     0.94238
   15          H           0.055774        0.9442     0.94423
   16          H           0.062360        0.9376     0.93764
   17          H           0.067481        0.9325     0.93252
   18          H           0.052956        0.9470     0.94704
   19          C          -0.190640        4.1906     1.16264     3.02800
   20          C          -0.190640        4.1906     1.16264     3.02800
   21          C          -0.190772        4.1908     1.16224     3.02853
   22          H           0.059360        0.9406     0.94064
   23          H           0.062203        0.9378     0.93780
   24          H           0.057643        0.9424     0.94236
   25          H           0.059360        0.9406     0.94064
   26          H           0.057643        0.9424     0.94236
   27          H           0.062203        0.9378     0.93780
   28          H           0.056233        0.9438     0.94377
   29          H           0.065828        0.9342     0.93417
   30          H           0.065828        0.9342     0.93417
 DIPOLE           X         Y         Z       TOTAL
 POINT-CHG.     0.012    -0.054     0.054     0.077
 HYBRID         0.028     0.057     0.010     0.065
 SUM            0.039     0.004     0.064     0.076


          CARTESIAN COORDINATES 

    NO.       ATOM               X         Y         Z

     1         C                  0.0037    0.0107   -0.0005
     2         C                  1.5241    0.0001    0.0163
     3         C                  2.0697    1.4208    0.0041
     4         C                  1.5258    2.3218    1.1148
     5         C                  0.0048    2.1937    1.2208
     6         C                 -0.5126    0.7624    1.2163
     7         H                 -0.3949   -1.0256   -0.0187
     8         H                 -0.3760    0.4708   -0.9372
     9         H                  1.9178   -0.5661   -0.8551
    10         H                  1.9038   -0.5611    0.8995
    11         H                  1.8380    1.8863   -0.9797
    12         H                  3.1824    1.3941    0.0382
    13         C                  2.2631    2.1684    2.4636
    14         H                  1.7298    3.3813    0.7879
    15         H                 -0.4606    2.7466    0.3746
    16         H                 -0.3653    2.7219    2.1285
    17         H                 -0.2262    0.2361    2.1545
    18         H                 -1.6237    0.7595    1.2315
    19         C                  3.7556    2.4441    2.2555
    20         C                  1.7224    3.2052    3.4535
    21         C                  2.1064    0.7834    3.0776
    22         H                  4.3302    2.3433    3.1873
    23         H                  4.2064    1.7503    1.5279
    24         H                  3.9483    3.4594    1.8799
    25         H                  2.2118    3.1362    4.4354
    26         H                  1.8693    4.2375    3.1047
    27         H                  0.6412    3.0847    3.6285
    28         H                  2.6371    0.6911    4.0368
    29         H                  1.0528    0.5308    3.2789
    30         H                  2.5021   -0.0117    2.4250


          ATOMIC ORBITAL ELECTRON POPULATIONS

   1.16660   0.95887   1.00295   0.98483   1.16862   0.95874   0.96690   1.02583
   1.17061   1.00632   0.95769   0.98527   1.18277   0.94206   0.98997   0.94196
   1.17061   0.95573   0.96756   1.02599   1.16862   0.99889   0.96390   0.98867
   0.94649   0.93960   0.94704   0.93252   0.94423   0.93764   1.17869   0.92966
   0.93327   0.93134   0.94238   0.94423   0.93764   0.93252   0.94704   1.16264
   0.97102   1.02714   1.02984   1.16264   1.02450   0.99940   1.00410   1.16224
   1.03329   0.97853   1.01671   0.94064   0.93780   0.94236   0.94064   0.94236
   0.93780   0.94377   0.93417   0.93417



 TOTAL CPU TIME:            26.04 SECONDS

 == MOPAC DONE ==
