 *******************************************************************************
 ** Site#:  175         For non-commercial use only    Version 19.089W 64BITS **
 *******************************************************************************
 ** Cite this program as: MOPAC2016, Version: 19.089W, James J. P. Stewart,   **
 ** Stewart Computational Chemistry, web-site: HTTP://OpenMOPAC.net.          **
 *******************************************************************************
 **                                                                           **
 **                                MOPAC2016                                  **
 **                                                                           **
 *******************************************************************************

                              RM1 CALCULATION RESULTS

 *******************************************************************************
 *  CALCULATION DONE:                                Tue May 25 17:37:02 2021  *
 *  RM1        - The RM1 Hamiltonian to be used
 *  PRECISE    - CRITERIA TO BE INCREASED BY 100 TIMES
 *  XYZ        - CARTESIAN COORDINATE SYSTEM TO BE USED
 *  T=         - A TIME OF 172800.0 SECONDS REQUESTED
 *  DUMP=N     - RESTART FILE WRITTEN EVERY  7200.000 SECONDS
 *  GNORM=     - EXIT WHEN GRADIENT NORM DROPS BELOW  0.100E-01
 *******************************************************************************
RM1 GNORM=0.01 PRECISE XYZ
 NAME: AM1-CH3-AXIAL

   ATOM   CHEMICAL          X               Y               Z
  NUMBER   SYMBOL      (ANGSTROMS)     (ANGSTROMS)     (ANGSTROMS)
 
     1       C          0.00000000  *   0.00000000  *   0.00000000  *
     2       C          1.53990000  *   0.00000000  *   0.00000000  *
     3       C          2.05323281  *   1.45192611  *   0.00000000  *
     4       C          1.53993022  *   2.17784201  *   1.25732198  *
     5       C          0.00003022  *   2.17784310  *   1.25731754  *
     6       C         -0.51329948  *   0.72591591  *   1.25732325  *
     7       H         -0.36333296  *  -1.02766199  *  -0.00000179  *
     8       H         -0.36333296  *   0.51383099  *  -0.88998139  *
     9       H          1.90319963  *  -0.51378385  *  -0.88989974  *
    10       H          1.90319963  *  -0.51378385  *   0.88989974  *
    11       H          1.68990020  *   1.96575619  *  -0.88998206  *
    12       H          3.14323281  *   1.45192611  *   0.00000045  *
    13       C          2.05326279  *   1.45187988  *   2.51472750  *
    14       H          1.90326409  *   3.20550368  *   1.25732253  *
    15       H         -0.36329802  *   2.69167493  *   0.36733470  *
    16       H         -0.36330495  *   2.69167477  *   2.14729763  *
    17       H         -1.60319948  *   0.72591630  *   1.25732302  *
    18       H         -0.14996760  *   0.21208337  *   2.14730418  *
    19       H          3.14316279  *   1.45187352  *   2.51472843  *
    20       H          1.68992750  *   1.96571648  *   3.40470469  *
    21       H          1.68991780  *   0.42422214  *   2.51472805  *
 


          CARTESIAN COORDINATES 

    NO.       ATOM           X           Y           Z

     1         C          0.0000      0.0000      0.0000
     2         C          1.5399      0.0000      0.0000
     3         C          2.0532      1.4519      0.0000
     4         C          1.5399      2.1778      1.2573
     5         C          0.0000      2.1778      1.2573
     6         C         -0.5133      0.7259      1.2573
     7         H         -0.3633     -1.0277     -0.0000
     8         H         -0.3633      0.5138     -0.8900
     9         H          1.9032     -0.5138     -0.8899
    10         H          1.9032     -0.5138      0.8899
    11         H          1.6899      1.9658     -0.8900
    12         H          3.1432      1.4519      0.0000
    13         C          2.0533      1.4519      2.5147
    14         H          1.9033      3.2055      1.2573
    15         H         -0.3633      2.6917      0.3673
    16         H         -0.3633      2.6917      2.1473
    17         H         -1.6032      0.7259      1.2573
    18         H         -0.1500      0.2121      2.1473
    19         H          3.1432      1.4519      2.5147
    20         H          1.6899      1.9657      3.4047
    21         H          1.6899      0.4242      2.5147

  H: (RM1): G.B. ROCHA, R.O. FREIRE, A.M.SIMAS, J.J.P. STEWART, J. COMP. CHEM. 27, 1101 (2006)
  C: (RM1): G.B. ROCHA, R.O. FREIRE, A.M.SIMAS, J.J.P. STEWART, J. COMP. CHEM. 27, 1101 (2006)

           Empirical Formula: C7 H14  =    21 atoms



      MOLECULAR POINT GROUP   :   Cs  


      RHF CALCULATION, NO. OF DOUBLY OCCUPIED LEVELS = 21


          Geometry optimization using EF

          DIAGONAL MATRIX USED AS START HESSIAN

 CYCLE:     1 TIME:   0.012 TIME LEFT:  2.00D  GRAD.:    96.052 HEAT: -30.37758
 CYCLE:     2 TIME:   0.012 TIME LEFT:  2.00D  GRAD.:    77.938 HEAT: -31.78827
 CYCLE:     3 TIME:   0.008 TIME LEFT:  2.00D  GRAD.:    26.151 HEAT: -34.19647
 CYCLE:     4 TIME:   0.020 TIME LEFT:  2.00D  GRAD.:    25.753 HEAT: -34.39025
 CYCLE:     5 TIME:   0.008 TIME LEFT:  2.00D  GRAD.:    16.095 HEAT: -34.63751
 CYCLE:     6 TIME:   0.016 TIME LEFT:  2.00D  GRAD.:    16.610 HEAT: -34.71787
 CYCLE:     7 TIME:   0.008 TIME LEFT:  2.00D  GRAD.:    12.054 HEAT: -34.84279
 CYCLE:     8 TIME:   0.012 TIME LEFT:  2.00D  GRAD.:    10.421 HEAT: -34.90807
 CYCLE:     9 TIME:   0.008 TIME LEFT:  2.00D  GRAD.:     6.975 HEAT: -34.99401
 CYCLE:    10 TIME:   0.012 TIME LEFT:  2.00D  GRAD.:    10.803 HEAT: -35.06500
 CYCLE:    11 TIME:   0.008 TIME LEFT:  2.00D  GRAD.:    11.558 HEAT: -35.18133
 CYCLE:    12 TIME:   0.008 TIME LEFT:  2.00D  GRAD.:    13.210 HEAT: -35.32045
 CYCLE:    13 TIME:   0.008 TIME LEFT:  2.00D  GRAD.:    18.772 HEAT: -35.44812
 CYCLE:    14 TIME:   0.008 TIME LEFT:  2.00D  GRAD.:    24.154 HEAT: -35.48685
 CYCLE:    15 TIME:   0.008 TIME LEFT:  2.00D  GRAD.:    23.853 HEAT: -35.54456
 CYCLE:    16 TIME:   0.016 TIME LEFT:  2.00D  GRAD.:    21.344 HEAT: -35.61865
 CYCLE:    17 TIME:   0.012 TIME LEFT:  2.00D  GRAD.:    11.771 HEAT: -35.74606
 CYCLE:    18 TIME:   0.012 TIME LEFT:  2.00D  GRAD.:     5.127 HEAT: -35.79351
 CYCLE:    19 TIME:   0.008 TIME LEFT:  2.00D  GRAD.:     4.157 HEAT: -35.80813
 CYCLE:    20 TIME:   0.008 TIME LEFT:  2.00D  GRAD.:     6.656 HEAT: -35.82084
 CYCLE:    21 TIME:   0.012 TIME LEFT:  2.00D  GRAD.:     6.599 HEAT: -35.82839
 CYCLE:    22 TIME:   0.008 TIME LEFT:  2.00D  GRAD.:     3.873 HEAT: -35.85252
 CYCLE:    23 TIME:   0.020 TIME LEFT:  2.00D  GRAD.:     4.911 HEAT: -35.85462
 CYCLE:    24 TIME:   0.008 TIME LEFT:  2.00D  GRAD.:     2.545 HEAT: -35.86559
 CYCLE:    25 TIME:   0.008 TIME LEFT:  2.00D  GRAD.:     2.144 HEAT: -35.87538
 CYCLE:    26 TIME:   0.008 TIME LEFT:  2.00D  GRAD.:     6.796 HEAT: -35.87989
 CYCLE:    27 TIME:   0.008 TIME LEFT:  2.00D  GRAD.:     1.571 HEAT: -35.90703
 CYCLE:    28 TIME:   0.004 TIME LEFT:  2.00D  GRAD.:     4.942 HEAT: -35.92353
 CYCLE:    29 TIME:   0.008 TIME LEFT:  2.00D  GRAD.:     4.073 HEAT: -35.94824
 CYCLE:    30 TIME:   0.023 TIME LEFT:  2.00D  GRAD.:     5.397 HEAT: -35.94711
 CYCLE:    31 TIME:   0.008 TIME LEFT:  2.00D  GRAD.:     4.149 HEAT: -35.96041
 CYCLE:    32 TIME:   0.012 TIME LEFT:  2.00D  GRAD.:     4.733 HEAT: -35.96203
 CYCLE:    33 TIME:   0.020 TIME LEFT:  2.00D  GRAD.:     2.918 HEAT: -35.96916
 CYCLE:    34 TIME:   0.008 TIME LEFT:  2.00D  GRAD.:     3.018 HEAT: -35.96990
 CYCLE:    35 TIME:   0.008 TIME LEFT:  2.00D  GRAD.:     1.699 HEAT: -35.97867
 CYCLE:    36 TIME:   0.016 TIME LEFT:  2.00D  GRAD.:     6.279 HEAT: -35.97087
 CYCLE:    37 TIME:   0.008 TIME LEFT:  2.00D  GRAD.:     3.604 HEAT: -35.98257
 CYCLE:    38 TIME:   0.016 TIME LEFT:  2.00D  GRAD.:     3.302 HEAT: -35.98348
 CYCLE:    39 TIME:   0.008 TIME LEFT:  2.00D  GRAD.:     1.880 HEAT: -35.98703
 CYCLE:    40 TIME:   0.016 TIME LEFT:  2.00D  GRAD.:     2.973 HEAT: -35.98535
 CYCLE:    41 TIME:   0.008 TIME LEFT:  2.00D  GRAD.:     0.981 HEAT: -35.98818
 CYCLE:    42 TIME:   0.008 TIME LEFT:  2.00D  GRAD.:     0.748 HEAT: -35.98839
 CYCLE:    43 TIME:   0.008 TIME LEFT:  2.00D  GRAD.:     0.087 HEAT: -35.98861
 CYCLE:    44 TIME:   0.004 TIME LEFT:  2.00D  GRAD.:     0.049 HEAT: -35.98863
 CYCLE:    45 TIME:   0.008 TIME LEFT:  2.00D  GRAD.:     0.048 HEAT: -35.98864
 CYCLE:    46 TIME:   0.008 TIME LEFT:  2.00D  GRAD.:     0.022 HEAT: -35.98864
 CYCLE:    47 TIME:   0.004 TIME LEFT:  2.00D  GRAD.:     0.016 HEAT: -35.98864
 CYCLE:    48 TIME:   0.008 TIME LEFT:  2.00D  GRAD.:     0.007 HEAT: -35.98864

     GRADIENT =  0.00671 IS LESS THAN CUTOFF =  0.01000



 -------------------------------------------------------------------------------
 RM1 GNORM=0.01 PRECISE XYZ
 NAME: AM1-CH3-AXIAL



     GEOMETRY OPTIMISED USING EIGENVECTOR FOLLOWING (EF).     
     SCF FIELD WAS ACHIEVED                                   


                              RM1 CALCULATION
                                                       MOPAC2016 (Version: 19.089W)
                                                       Tue May 25 17:37:03 2021




          FINAL HEAT OF FORMATION =        -35.98864 KCAL/MOL =    -150.57648 KJ/MOL


          TOTAL ENERGY            =      -1077.58601 EV
          ELECTRONIC ENERGY       =      -5604.73122 EV  POINT GROUP:     Cs  
          CORE-CORE REPULSION     =       4527.14522 EV
          COSMO AREA              =        147.00 SQUARE ANGSTROMS
          COSMO VOLUME            =        148.12 CUBIC ANGSTROMS

          GRADIENT NORM           =          0.00671 = 0.00147 PER ATOM
          IONIZATION POTENTIAL    =         10.717540 EV
          HOMO LUMO ENERGIES (EV) =        -10.718  3.911
          NO. OF FILLED LEVELS    =         21
          MOLECULAR WEIGHT        =         98.1876

          MOLECULAR DIMENSIONS (Angstroms)

            Atom       Atom       Distance
            H    20    H     7     5.25815
            H    17    H    12     4.72056
            H    15    H    21     3.56021


          SCF CALCULATIONS        =         71
 
          WALL-CLOCK TIME         =          0.551 SECONDS
          COMPUTATION TIME        =          1.969 SECONDS




   ATOM   CHEMICAL          X               Y               Z
  NUMBER   SYMBOL      (ANGSTROMS)     (ANGSTROMS)     (ANGSTROMS)
 
     1       C         -0.02633751  *   0.01549470  *  -0.05195567  *
     2       C          1.49613466  *  -0.01674042  *  -0.04614196  *
     3       C          2.05688290  *   1.39574571  *   0.04584011  *
     4       C          1.53764867  *   2.14325665  *   1.27357048  *
     5       C          0.00975377  *   2.11951336  *   1.29944147  *
     6       C         -0.54428489  *   0.70465574  *   1.20334675  *
     7       H         -0.43662900  *  -1.01361942  *  -0.12780214  *
     8       H         -0.40093281  *   0.53133262  *  -0.96149170  *
     9       H          1.87431230  *  -0.51900977  *  -0.96253964  *
    10       H          1.87162782  *  -0.65180167  *   0.78292055  *
    11       H          1.79870299  *   1.96331509  *  -0.87437275  *
    12       H          3.16720450  *   1.36935335  *   0.05120987  *
    13       C          2.12659406  *   1.58051390  *   2.56021553  *
    14       H          1.86769948  *   3.21452372  *   1.19404738  *
    15       H         -0.38798100  *   2.73642322  *   0.46469314  *
    16       H         -0.36841172  *   2.61937492  *   2.21631869  *
    17       H         -1.65534959  *   0.72891151  *   1.19891375  *
    18       H         -0.29190051  *   0.11311683  *   2.10779241  *
    19       H          3.22561100  *   1.63155500  *   2.56275743  *
    20       H          1.78640031  *   2.14040590  *   3.44409469  *
    21       H          1.86654323  *   0.52939433  *   2.74243039  *

                             CARTESIAN COORDINATES

   1    C       -0.026337511     0.015494697    -0.051955669
   2    C        1.496134658    -0.016740418    -0.046141957
   3    C        2.056882905     1.395745711     0.045840106
   4    C        1.537648674     2.143256653     1.273570483
   5    C        0.009753774     2.119513361     1.299441473
   6    C       -0.544284890     0.704655737     1.203346755
   7    H       -0.436629004    -1.013619422    -0.127802145
   8    H       -0.400932807     0.531332625    -0.961491696
   9    H        1.874312301    -0.519009773    -0.962539635
  10    H        1.871627818    -0.651801674     0.782920552
  11    H        1.798702994     1.963315087    -0.874372754
  12    H        3.167204504     1.369353348     0.051209873
  13    C        2.126594065     1.580513899     2.560215533
  14    H        1.867699480     3.214523720     1.194047382
  15    H       -0.387981001     2.736423219     0.464693143
  16    H       -0.368411724     2.619374918     2.216318693
  17    H       -1.655349586     0.728911509     1.198913747
  18    H       -0.291900510     0.113116833     2.107792408
  19    H        3.225610999     1.631555003     2.562757434
  20    H        1.786400308     2.140405898     3.444094694
  21    H        1.866543231     0.529394326     2.742430394


           Empirical Formula: C7 H14  =    21 atoms



      MOLECULAR POINT GROUP   :   Cs  


                  EIGENVALUES  
 -37.27578 -31.24319 -29.91694 -26.27427 -22.25151 -21.73430 -18.52682 -16.29088
 -14.85874 -14.71514 -14.36781 -13.63534 -13.49171 -12.93582 -12.32723 -12.04398
 -11.83696 -11.48160 -10.88055 -10.80225 -10.71754   3.91099   4.01418   4.05688
   4.47222   4.48685   4.55502   4.62729   4.77357   4.88231   5.04203   5.07968
   5.18517   5.28673   5.32469   5.32825   5.38726   5.54632   5.59087   5.61275
   5.68751   5.83744


              NET ATOMIC CHARGES AND DIPOLE CONTRIBUTIONS

  ATOM NO.   TYPE          CHARGE      No. of ELECS.   s-Pop       p-Pop       
    1          C          -0.115409        4.1154     1.16772     2.94769
    2          C          -0.114215        4.1142     1.16712     2.94709
    3          C          -0.119028        4.1190     1.16995     2.94908
    4          C          -0.046323        4.0463     1.17486     2.87146
    5          C          -0.119027        4.1190     1.16995     2.94908
    6          C          -0.114216        4.1142     1.16712     2.94709
    7          H           0.054307        0.9457     0.94569
    8          H           0.060372        0.9396     0.93963
    9          H           0.053315        0.9467     0.94668
   10          H           0.062496        0.9375     0.93750
   11          H           0.058563        0.9414     0.94144
   12          H           0.057206        0.9428     0.94279
   13          C          -0.179929        4.1799     1.15759     3.02234
   14          H           0.057821        0.9422     0.94218
   15          H           0.058562        0.9414     0.94144
   16          H           0.057206        0.9428     0.94279
   17          H           0.053315        0.9467     0.94668
   18          H           0.062496        0.9375     0.93750
   19          H           0.054893        0.9451     0.94511
   20          H           0.054893        0.9451     0.94511
   21          H           0.062701        0.9373     0.93730
 DIPOLE           X         Y         Z       TOTAL
 POINT-CHG.    -0.001     0.008    -0.006     0.010
 HYBRID         0.008    -0.024     0.027     0.037
 SUM            0.007    -0.016     0.021     0.027


          ATOMIC ORBITAL ELECTRON POPULATIONS

     Atom    s        px        py        pz   
    1  C   1.16772   0.95866   1.00684   0.98219
    2  C   1.16712   0.95713   0.96669   1.02327
    3  C   1.16995   1.00211   0.96460   0.98236
    4  C   1.17486   0.94592   0.98598   0.93956
    5  C   1.16995   0.95737   0.96809   1.02363
    6  C   1.16712   0.99838   0.96501   0.98371
    7  H   0.94569
    8  H   0.93963
    9  H   0.94668
   10  H   0.93750
   11  H   0.94144
   12  H   0.94279
   13  C   1.15759   1.01585   1.02577   0.98072
   14  H   0.94218
   15  H   0.94144
   16  H   0.94279
   17  H   0.94668
   18  H   0.93750
   19  H   0.94511
   20  H   0.94511
   21  H   0.93730

 **********************
 *                    *
 * JOB ENDED NORMALLY *
 *                    *
 **********************



 TOTAL JOB TIME:             0.56 SECONDS

 == MOPAC DONE ==
